                         Program Version 5.0.2 -  RELEASE  -
|  1> # avogadro generated ORCA input file
|  2> # PH+ DUPLETO - GEOMETRIA
|  3> #
|  4> ! WB97X def2-tzvp OPT FREQ
|  5> %maxcore 3000
|  6>
|  7> * xyz 1 2
|  8>    P       -4.07437        0.44335        0.00000
|  9>    H       -2.67483        0.28199        0.00000
| 10> *
| 11>
| 12>
| 13>                          ****END OF INPUT****
 Total Charge           Charge          ....    1
 Multiplicity           Mult            ....    2
 Number of Electrons    NEL             ....   15
FINAL SINGLE POINT ENERGY      -341.502733164314
FINAL SINGLE POINT ENERGY      -341.502837244656
FINAL SINGLE POINT ENERGY      -341.502855597784
                    ***********************HURRAY********************

CARTESIAN COORDINATES (ANGSTROEM)
---------------------------------
  P     -4.083022    0.444348    0.000000
  H     -2.666178    0.280992    0.000000

 Multiplicity           Mult            ....    2
 Number of Electrons    NEL             ....   15
 Basis Dimension        Dim             ....   43

ORBITAL ENERGIES
----------------
                 SPIN UP ORBITALS
  NO   OCC          E(Eh)            E(eV)
   0   1.0000     -77.475691     -2108.2207
   1   1.0000      -7.055697      -191.9953
   2   1.0000      -5.218944      -142.0147
   3   1.0000      -5.217168      -141.9664
   4   1.0000      -5.209395      -141.7548
   5   1.0000      -1.063113       -28.9288
   6   1.0000      -0.760501       -20.6943
   7   1.0000      -0.671132       -18.2624
   8   0.0000      -0.387301       -10.5390
   9   0.0000      -0.147754        -4.0206
  10   0.0000       0.016269         0.4427
  11   0.0000       0.046639         1.2691
  12   0.0000       0.055305         1.5049

                 SPIN DOWN ORBITALS
  NO   OCC          E(Eh)            E(eV)
   0   1.0000     -77.470588     -2108.0819
   1   1.0000      -7.052042      -191.8958
   2   1.0000      -5.216164      -141.9390
   3   1.0000      -5.206582      -141.6783
   4   1.0000      -5.202877      -141.5775
   5   1.0000      -1.017675       -27.6923
   6   1.0000      -0.744948       -20.2711
   7   0.0000      -0.374992       -10.2041
   8   0.0000      -0.341252        -9.2859
   9   0.0000      -0.136424        -3.7123
  10   0.0000       0.014574         0.3966
  11   0.0000       0.059144         1.6094

MULLIKEN ATOMIC CHARGES AND SPIN POPULATIONS
--------------------------------------------
   0 P :    0.783800    1.013751
   1 H :    0.216200   -0.013751
Sum of atomic charges         :    1.0000000

LOEWDIN ATOMIC CHARGES AND SPIN POPULATIONS
-------------------------------------------
   0 P :    0.954397    1.004919
   1 H :    0.045603   -0.004919

  Mayer bond orders larger than 0.100000
B(  0-P ,  1-H ) :   0.9243

FINAL SINGLE POINT ENERGY      -341.502855627265

DIPOLE MOMENT
-------------
                                X             Y             Z
Electronic contribution:     -0.96352       0.11106      -0.00000
Nuclear contribution   :      1.32726      -0.15303       0.00000
                        -----------------------------------------
Total Dipole Moment    :      0.36374      -0.04197      -0.00000
                        -----------------------------------------
Magnitude (a.u.)       :      0.36615
Magnitude (Debye)      :      0.93069

VIBRATIONAL FREQUENCIES
-----------------------

Scaling factor for frequencies =  1.000000000  (already applied!)

   0:         0.00 cm**-1
   1:         0.00 cm**-1
   2:         0.00 cm**-1
   3:         0.00 cm**-1
   4:         0.00 cm**-1
   5:      2431.22 cm**-1

IR SPECTRUM
-----------

 Mode   freq       eps      Int      T**2         TX        TY        TZ
       cm**-1   L/(mol*cm) km/mol    a.u.
----------------------------------------------------------------------------
  5:   2431.22   0.000190    0.96  0.000024  (-0.004898  0.000643 -0.000000)

--------------------------
THERMOCHEMISTRY AT 298.15K
--------------------------

Temperature         ... 298.15 K
Pressure            ... 1.00 atm
Total Mass          ... 31.98 AMU
The molecule is recognized as being linear

Throughout the following assumptions are being made:
  (1) The electronic state is orbitally nondegenerate
      but the spin degeneracy is treated
  (2) There are no thermally accessible electronically excited states
  (3) Hindered rotations indicated by low frequency modes are not
      treated as such but are treated as vibrations and this may
      cause some error
  (4) All equations used are the standard statistical mechanics
      equations for an ideal gas
  (5) All vibrations are strictly harmonic

freq.    2431.22  E(vib)   ...       0.00

------------
INNER ENERGY
------------

The inner energy is: U= E(el) + E(ZPE) + E(vib) + E(rot) + E(trans)
    E(el)   - is the total energy from the electronic structure calculation
              = E(kin-el) + E(nuc-el) + E(el-el) + E(nuc-nuc)
    E(ZPE)  - the the zero temperature vibrational energy from the frequency calculation
    E(vib)  - the the finite temperature correction to E(ZPE) due to population
              of excited vibrational states
    E(rot)  - is the rotational thermal energy
    E(trans)- is the translational thermal energy

Summary of contributions to the inner energy U:
Electronic energy                ...   -341.50285563 Eh
Zero point energy                ...      0.00553873 Eh       3.48 kcal/mol
Thermal vibrational correction   ...      0.00000009 Eh       0.00 kcal/mol
Thermal rotational correction    ...      0.00094418 Eh       0.59 kcal/mol
Thermal translational correction ...      0.00141627 Eh       0.89 kcal/mol
-----------------------------------------------------------------------
Total thermal energy                   -341.49495635 Eh

Summary of corrections to the electronic energy:
(perhaps to be used in another calculation)
Total thermal correction                  0.00236054 Eh       1.48 kcal/mol
Non-thermal (ZPE) correction              0.00553873 Eh       3.48 kcal/mol
-----------------------------------------------------------------------
Total correction                          0.00789927 Eh       4.96 kcal/mol

--------
ENTHALPY
--------

The enthalpy is H = U + kB*T
                kB is Boltzmann's constant
Total free energy                 ...   -341.49495635 Eh
Thermal Enthalpy correction       ...      0.00094421 Eh       0.59 kcal/mol
-----------------------------------------------------------------------
Total Enthalpy                    ...   -341.49401214 Eh

Note: Rotational entropy computed according to Herzberg
Infrared and Raman Spectra, Chapter V,1, Van Nostrand Reinhold, 1945
Point Group:  Cinfv, Symmetry Number:   1
Rotational constants in cm-1:     0.000000     8.489168     8.489168

Vibrational entropy computed according to the QRRHO of S. Grimme
Chem.Eur.J. 2012 18 9955

-------
ENTROPY
-------

The entropy contributions are T*S = T*(S(el)+S(vib)+S(rot)+S(trans))
     S(el)   - electronic entropy
     S(vib)  - vibrational entropy
     S(rot)  - rotational entropy
     S(trans)- translational entropy
The entropies will be listed as multiplied by the temperature to get
units of energy

Electronic entropy                ...      0.00065446 Eh      0.41 kcal/mol
Vibrational entropy               ...      0.00000010 Eh      0.00 kcal/mol
Rotational entropy                ...      0.00396086 Eh      2.49 kcal/mol
Translational entropy             ...      0.01725670 Eh     10.83 kcal/mol
-----------------------------------------------------------------------
Final entropy term                ...      0.02187211 Eh     13.72 kcal/mol

-------------------
GIBBS FREE ENERGY
-------------------

The Gibbs free energy is G = H - T*S

Total enthalpy                    ...   -341.49401214 Eh
Total entropy correction          ...     -0.02187211 Eh    -13.72 kcal/mol
-----------------------------------------------------------------------
Final Gibbs free energy         ...   -341.51588425 Eh

For completeness - the Gibbs free energy minus the electronic energy
G-E(el)                           ...     -0.01302862 Eh     -8.18 kcal/mol

                             ****ORCA TERMINATED NORMALLY****
TOTAL RUN TIME: 0 days 0 hours 0 minutes 47 seconds 624 msec
