                         Program Version 5.0.2 -  RELEASE  -
|  1> # avogadro generated ORCA input file
|  2> # PH+ DUPLETO - GEOMETRIA
|  3> #
|  4> ! WB97X-D3 def2-tzvp OPT FREQ
|  5> %maxcore 3000
|  6>
|  7> * xyz 1 2
|  8>    P       -4.07437        0.44335        0.00000
|  9>    H       -2.67483        0.28199        0.00000
| 10> *
| 11>
| 12>
| 13>                          ****END OF INPUT****
 Total Charge           Charge          ....    1
 Multiplicity           Mult            ....    2
 Number of Electrons    NEL             ....   15
Dispersion correction           -0.000000154
FINAL SINGLE POINT ENERGY      -341.503682737543
Dispersion correction            ... done
Dispersion correction           -0.000000164
FINAL SINGLE POINT ENERGY      -341.503802457105
Dispersion correction            ... done
Dispersion correction           -0.000000171
FINAL SINGLE POINT ENERGY      -341.503824171881
Dispersion correction            ... done
                    ***********************HURRAY********************

CARTESIAN COORDINATES (ANGSTROEM)
---------------------------------
  P     -4.083714    0.444427    0.000000
  H     -2.665486    0.280913    0.000000

 Multiplicity           Mult            ....    2
 Number of Electrons    NEL             ....   15
 Basis Dimension        Dim             ....   43

ORBITAL ENERGIES
----------------
                 SPIN UP ORBITALS
  NO   OCC          E(Eh)            E(eV)
   0   1.0000     -77.577094     -2110.9800
   1   1.0000      -7.072202      -192.4444
   2   1.0000      -5.226923      -142.2318
   3   1.0000      -5.226633      -142.2239
   4   1.0000      -5.218291      -141.9969
   5   1.0000      -1.050430       -28.5837
   6   1.0000      -0.752188       -20.4681
   7   1.0000      -0.662420       -18.0254
   8   0.0000      -0.396477       -10.7887
   9   0.0000      -0.154921        -4.2156
  10   0.0000       0.009510         0.2588
  11   0.0000       0.037545         1.0217
  12   0.0000       0.045949         1.2503

                 SPIN DOWN ORBITALS
  NO   OCC          E(Eh)            E(eV)
   0   1.0000     -77.571815     -2110.8364
   1   1.0000      -7.067995      -192.3299
   2   1.0000      -5.224009      -142.1525
   3   1.0000      -5.215259      -141.9144
   4   1.0000      -5.210709      -141.7906
   5   1.0000      -1.007107       -27.4048
   6   1.0000      -0.737117       -20.0580
   7   0.0000      -0.382985       -10.4216
   8   0.0000      -0.347459        -9.4548
   9   0.0000      -0.143465        -3.9039
  10   0.0000       0.012619         0.3434
  11   0.0000       0.050525         1.3748

MULLIKEN ATOMIC CHARGES AND SPIN POPULATIONS
--------------------------------------------
   0 P :    0.782819    1.016965
   1 H :    0.217181   -0.016965
Sum of atomic charges         :    1.0000000

LOEWDIN ATOMIC CHARGES AND SPIN POPULATIONS
-------------------------------------------
   0 P :    0.952912    1.005207
   1 H :    0.047088   -0.005207

  Mayer bond orders larger than 0.100000
B(  0-P ,  1-H ) :   0.9224

Dispersion correction           -0.000000171
FINAL SINGLE POINT ENERGY      -341.503824213199

DIPOLE MOMENT
-------------
                                X             Y             Z
Electronic contribution:     -0.96724       0.11148      -0.00000
Nuclear contribution   :      1.32855      -0.15318       0.00000
                        -----------------------------------------
Total Dipole Moment    :      0.36132      -0.04170      -0.00000
                        -----------------------------------------
Magnitude (a.u.)       :      0.36371
Magnitude (Debye)      :      0.92449

Dispersion correction in the Hessian             ... done   (      2.0 sec)

VIBRATIONAL FREQUENCIES
-----------------------

Scaling factor for frequencies =  1.000000000  (already applied!)

   0:         0.00 cm**-1
   1:         0.00 cm**-1
   2:         0.00 cm**-1
   3:         0.00 cm**-1
   4:         0.00 cm**-1
   5:      2416.24 cm**-1

IR SPECTRUM
-----------

 Mode   freq       eps      Int      T**2         TX        TY        TZ
       cm**-1   L/(mol*cm) km/mol    a.u.
----------------------------------------------------------------------------
  5:   2416.24   0.000190    0.96  0.000025  (-0.004920  0.000621 -0.000000)

--------------------------
THERMOCHEMISTRY AT 298.15K
--------------------------

Temperature         ... 298.15 K
Pressure            ... 1.00 atm
Total Mass          ... 31.98 AMU
The molecule is recognized as being linear

Throughout the following assumptions are being made:
  (1) The electronic state is orbitally nondegenerate
      but the spin degeneracy is treated
  (2) There are no thermally accessible electronically excited states
  (3) Hindered rotations indicated by low frequency modes are not
      treated as such but are treated as vibrations and this may
      cause some error
  (4) All equations used are the standard statistical mechanics
      equations for an ideal gas
  (5) All vibrations are strictly harmonic

freq.    2416.24  E(vib)   ...       0.00

------------
INNER ENERGY
------------

The inner energy is: U= E(el) + E(ZPE) + E(vib) + E(rot) + E(trans)
    E(el)   - is the total energy from the electronic structure calculation
              = E(kin-el) + E(nuc-el) + E(el-el) + E(nuc-nuc)
    E(ZPE)  - the the zero temperature vibrational energy from the frequency calculation
    E(vib)  - the the finite temperature correction to E(ZPE) due to population
              of excited vibrational states
    E(rot)  - is the rotational thermal energy
    E(trans)- is the translational thermal energy

Summary of contributions to the inner energy U:
Electronic energy                ...   -341.50382421 Eh
Zero point energy                ...      0.00550460 Eh       3.45 kcal/mol
Thermal vibrational correction   ...      0.00000010 Eh       0.00 kcal/mol
Thermal rotational correction    ...      0.00094418 Eh       0.59 kcal/mol
Thermal translational correction ...      0.00141627 Eh       0.89 kcal/mol
-----------------------------------------------------------------------
Total thermal energy                   -341.49595907 Eh

Summary of corrections to the electronic energy:
(perhaps to be used in another calculation)
Total thermal correction                  0.00236055 Eh       1.48 kcal/mol
Non-thermal (ZPE) correction              0.00550460 Eh       3.45 kcal/mol
-----------------------------------------------------------------------
Total correction                          0.00786514 Eh       4.94 kcal/mol

--------
ENTHALPY
--------

The enthalpy is H = U + kB*T
                kB is Boltzmann's constant
Total free energy                 ...   -341.49595907 Eh
Thermal Enthalpy correction       ...      0.00094421 Eh       0.59 kcal/mol
-----------------------------------------------------------------------
Total Enthalpy                    ...   -341.49501486 Eh

Note: Rotational entropy computed according to Herzberg
Infrared and Raman Spectra, Chapter V,1, Van Nostrand Reinhold, 1945
Point Group:  Cinfv, Symmetry Number:   1
Rotational constants in cm-1:     0.000000     8.472607     8.472607

Vibrational entropy computed according to the QRRHO of S. Grimme
Chem.Eur.J. 2012 18 9955

-------
ENTROPY
-------

The entropy contributions are T*S = T*(S(el)+S(vib)+S(rot)+S(trans))
     S(el)   - electronic entropy
     S(vib)  - vibrational entropy
     S(rot)  - rotational entropy
     S(trans)- translational entropy
The entropies will be listed as multiplied by the temperature to get
units of energy

Electronic entropy                ...      0.00065446 Eh      0.41 kcal/mol
Vibrational entropy               ...      0.00000010 Eh      0.00 kcal/mol
Rotational entropy                ...      0.00396270 Eh      2.49 kcal/mol
Translational entropy             ...      0.01725670 Eh     10.83 kcal/mol
-----------------------------------------------------------------------
Final entropy term                ...      0.02187396 Eh     13.73 kcal/mol

-------------------
GIBBS FREE ENERGY
-------------------

The Gibbs free energy is G = H - T*S

Total enthalpy                    ...   -341.49501486 Eh
Total entropy correction          ...     -0.02187396 Eh    -13.73 kcal/mol
-----------------------------------------------------------------------
Final Gibbs free energy         ...   -341.51688882 Eh

For completeness - the Gibbs free energy minus the electronic energy
G-E(el)                           ...     -0.01306460 Eh     -8.20 kcal/mol

                             ****ORCA TERMINATED NORMALLY****
TOTAL RUN TIME: 0 days 0 hours 0 minutes 48 seconds 219 msec
