                         Program Version 5.0.2 -  RELEASE  -
|  1> # avogadro generated ORCA input file
|  2> # PH3+ DUPLETO - FREQ
|  3> #
|  4> ! m062x def2-tzvp OPT FREQ
|  5> %maxcore 3000
|  6>
|  7> * xyz 1 2
|  8>   P   -1.49001204882609     -0.30892476315604      0.27694850121426
|  9>   H   -0.35974050626098      0.41243123471272     -0.09426710350383
| 10>   H   -1.43124737796522     -1.64910389006585     -0.09201766150340
| 11>   H   -2.68083006694771      0.30952741850917     -0.09066373620703
| 12> *
| 13>
| 14>                          ****END OF INPUT****
 Total Charge           Charge          ....    1
 Multiplicity           Mult            ....    2
 Number of Electrons    NEL             ....   17
FINAL SINGLE POINT ENERGY      -342.763511661856
FINAL SINGLE POINT ENERGY      -342.763567945592
FINAL SINGLE POINT ENERGY      -342.763583085605
                    ***********************HURRAY********************

CARTESIAN COORDINATES (ANGSTROEM)
---------------------------------
  P     -1.489420   -0.309474    0.289283
  H     -0.358640    0.414860   -0.098347
  H     -1.432305   -1.651636   -0.096020
  H     -2.681465    0.310181   -0.094916

 Multiplicity           Mult            ....    2
 Number of Electrons    NEL             ....   17
 Basis Dimension        Dim             ....   55

ORBITAL ENERGIES
----------------
                 SPIN UP ORBITALS
  NO   OCC          E(Eh)            E(eV)
   0   1.0000     -78.382644     -2132.9002
   1   1.0000      -7.196583      -195.8290
   2   1.0000      -5.321396      -144.8026
   3   1.0000      -5.310445      -144.5045
   4   1.0000      -5.310415      -144.5037
   5   1.0000      -1.049271       -28.5521
   6   1.0000      -0.772774       -21.0282
   7   1.0000      -0.772337       -21.0164
   8   1.0000      -0.626009       -17.0346
   9   0.0000      -0.192349        -5.2341
  10   0.0000      -0.191811        -5.2194
  11   0.0000      -0.191524        -5.2116
  12   0.0000      -0.045599        -1.2408
  13   0.0000      -0.011281        -0.3070

                 SPIN DOWN ORBITALS
  NO   OCC          E(Eh)            E(eV)
   0   1.0000     -78.374053     -2132.6664
   1   1.0000      -7.192529      -195.7187
   2   1.0000      -5.307303      -144.4191
   3   1.0000      -5.307284      -144.4185
   4   1.0000      -5.300265      -144.2275
   5   1.0000      -1.008179       -27.4339
   6   1.0000      -0.763463       -20.7749
   7   1.0000      -0.762940       -20.7607
   8   0.0000      -0.390122       -10.6158
   9   0.0000      -0.180147        -4.9020
  10   0.0000      -0.179458        -4.8833
  11   0.0000      -0.178817        -4.8659
  12   0.0000      -0.053490        -1.4555

MULLIKEN ATOMIC CHARGES AND SPIN POPULATIONS
--------------------------------------------
   0 P :    0.346570    0.991647
   1 H :    0.217819    0.003004
   2 H :    0.217887    0.002850
   3 H :    0.217724    0.002499
Sum of atomic charges         :    1.0000000

LOEWDIN ATOMIC CHARGES AND SPIN POPULATIONS
-------------------------------------------
   0 P :    0.782545    0.988525
   1 H :    0.072663    0.004017
   2 H :    0.072561    0.003909
   3 H :    0.072231    0.003548

  Mayer bond orders larger than 0.100000
B(  0-P ,  1-H ) :   0.9135 B(  0-P ,  2-H ) :   0.9134 B(  0-P ,  3-H ) :   0.9137

FINAL SINGLE POINT ENERGY      -342.763583139743

DIPOLE MOMENT
-------------
                                X             Y             Z
Electronic contribution:      0.00491      -0.00237       0.84348
Nuclear contribution   :     -0.00366       0.00161      -1.01969
                        -----------------------------------------
Total Dipole Moment    :      0.00125      -0.00076      -0.17621
                        -----------------------------------------
Magnitude (a.u.)       :      0.17622
Magnitude (Debye)      :      0.44791

VIBRATIONAL FREQUENCIES
-----------------------

Scaling factor for frequencies =  1.000000000  (already applied!)

   0:         0.00 cm**-1
   1:         0.00 cm**-1
   2:         0.00 cm**-1
   3:         0.00 cm**-1
   4:         0.00 cm**-1
   5:         0.00 cm**-1
   6:       778.39 cm**-1
   7:      1056.37 cm**-1
   8:      1059.06 cm**-1
   9:      2503.86 cm**-1
  10:      2568.58 cm**-1
  11:      2570.09 cm**-1

IR SPECTRUM
-----------

 Mode   freq       eps      Int      T**2         TX        TY        TZ
       cm**-1   L/(mol*cm) km/mol    a.u.
----------------------------------------------------------------------------
  6:    778.39   0.000110    0.56  0.000044  ( 0.001009 -0.000088 -0.006559)
  7:   1056.37   0.001485    7.51  0.000439  ( 0.008310 -0.019228  0.000060)
  8:   1059.06   0.001560    7.89  0.000460  (-0.020076 -0.007525 -0.000310)
  9:   2503.86   0.003092   15.63  0.000385  (-0.000975  0.001222  0.019569)
 10:   2568.58   0.011227   56.74  0.001364  ( 0.015331  0.033601  0.000122)
 11:   2570.09   0.011249   56.85  0.001366  (-0.033831  0.014875 -0.000259)

--------------------------
THERMOCHEMISTRY AT 298.15K
--------------------------

Temperature         ... 298.15 K
Pressure            ... 1.00 atm
Total Mass          ... 34.00 AMU

Throughout the following assumptions are being made:
  (1) The electronic state is orbitally nondegenerate
      but the spin degeneracy is treated
  (2) There are no thermally accessible electronically excited states
  (3) Hindered rotations indicated by low frequency modes are not
      treated as such but are treated as vibrations and this may
      cause some error
  (4) All equations used are the standard statistical mechanics
      equations for an ideal gas
  (5) All vibrations are strictly harmonic

freq.     778.39  E(vib)   ...       0.05
freq.    1056.37  E(vib)   ...       0.02
freq.    1059.06  E(vib)   ...       0.02
freq.    2503.86  E(vib)   ...       0.00
freq.    2568.58  E(vib)   ...       0.00
freq.    2570.09  E(vib)   ...       0.00

------------
INNER ENERGY
------------

The inner energy is: U= E(el) + E(ZPE) + E(vib) + E(rot) + E(trans)
    E(el)   - is the total energy from the electronic structure calculation
              = E(kin-el) + E(nuc-el) + E(el-el) + E(nuc-nuc)
    E(ZPE)  - the the zero temperature vibrational energy from the frequency calculation
    E(vib)  - the the finite temperature correction to E(ZPE) due to population
              of excited vibrational states
    E(rot)  - is the rotational thermal energy
    E(trans)- is the translational thermal energy

Summary of contributions to the inner energy U:
Electronic energy                ...   -342.76358314 Eh
Zero point energy                ...      0.02400355 Eh      15.06 kcal/mol
Thermal vibrational correction   ...      0.00014393 Eh       0.09 kcal/mol
Thermal rotational correction    ...      0.00141627 Eh       0.89 kcal/mol
Thermal translational correction ...      0.00141627 Eh       0.89 kcal/mol
-----------------------------------------------------------------------
Total thermal energy                   -342.73660312 Eh

Summary of corrections to the electronic energy:
(perhaps to be used in another calculation)
Total thermal correction                  0.00297647 Eh       1.87 kcal/mol
Non-thermal (ZPE) correction              0.02400355 Eh      15.06 kcal/mol
-----------------------------------------------------------------------
Total correction                          0.02698002 Eh      16.93 kcal/mol

--------
ENTHALPY
--------

The enthalpy is H = U + kB*T
                kB is Boltzmann's constant
Total free energy                 ...   -342.73660312 Eh
Thermal Enthalpy correction       ...      0.00094421 Eh       0.59 kcal/mol
-----------------------------------------------------------------------
Total Enthalpy                    ...   -342.73565891 Eh

Note: Only C1 symmetry has been detected, increase convergence thresholds
      if your molecule has a higher symmetry. Symmetry factor of 1.0 is
      used for the rotational entropy correction.

Note: Rotational entropy computed according to Herzberg
Infrared and Raman Spectra, Chapter V,1, Van Nostrand Reinhold, 1945
Point Group:  C1, Symmetry Number:   1
Rotational constants in cm-1:     5.381056     5.363196     3.089610

Vibrational entropy computed according to the QRRHO of S. Grimme
Chem.Eur.J. 2012 18 9955

-------
ENTROPY
-------

The entropy contributions are T*S = T*(S(el)+S(vib)+S(rot)+S(trans))
     S(el)   - electronic entropy
     S(vib)  - vibrational entropy
     S(rot)  - rotational entropy
     S(trans)- translational entropy
The entropies will be listed as multiplied by the temperature to get
units of energy

Electronic entropy                ...      0.00065446 Eh      0.41 kcal/mol
Vibrational entropy               ...      0.00017788 Eh      0.11 kcal/mol
Rotational entropy                ...      0.00739089 Eh      4.64 kcal/mol
Translational entropy             ...      0.01734327 Eh     10.88 kcal/mol
-----------------------------------------------------------------------
Final entropy term                ...      0.02556650 Eh     16.04 kcal/mol

In case the symmetry of your molecule has not been determined correctly
or in case you have a reason to use a different symmetry number we print
out the resulting rotational entropy values for sn=1,12 :
 --------------------------------------------------------
|  sn= 1 | S(rot)=       0.00739089 Eh      4.64 kcal/mol|
|  sn= 2 | S(rot)=       0.00673644 Eh      4.23 kcal/mol|
|  sn= 3 | S(rot)=       0.00635360 Eh      3.99 kcal/mol|
|  sn= 4 | S(rot)=       0.00608198 Eh      3.82 kcal/mol|
|  sn= 5 | S(rot)=       0.00587129 Eh      3.68 kcal/mol|
|  sn= 6 | S(rot)=       0.00569915 Eh      3.58 kcal/mol|
|  sn= 7 | S(rot)=       0.00555360 Eh      3.48 kcal/mol|
|  sn= 8 | S(rot)=       0.00542752 Eh      3.41 kcal/mol|
|  sn= 9 | S(rot)=       0.00531632 Eh      3.34 kcal/mol|
|  sn=10 | S(rot)=       0.00521684 Eh      3.27 kcal/mol|
|  sn=11 | S(rot)=       0.00512685 Eh      3.22 kcal/mol|
|  sn=12 | S(rot)=       0.00504469 Eh      3.17 kcal/mol|
 --------------------------------------------------------

-------------------
GIBBS FREE ENERGY
-------------------

The Gibbs free energy is G = H - T*S

Total enthalpy                    ...   -342.73565891 Eh
Total entropy correction          ...     -0.02556650 Eh    -16.04 kcal/mol
-----------------------------------------------------------------------
Final Gibbs free energy         ...   -342.76122541 Eh

For completeness - the Gibbs free energy minus the electronic energy
G-E(el)                           ...      0.00235773 Eh      1.48 kcal/mol

                             ****ORCA TERMINATED NORMALLY****
TOTAL RUN TIME: 0 days 0 hours 1 minutes 30 seconds 361 msec
