                         Program Version 5.0.2 -  RELEASE  -
|  1> # avogadro generated ORCA input file
|  2> # PH3+ DUPLETO - FREQ
|  3> #
|  4> ! WB97X-D3 def2-tzvp OPT FREQ
|  5> %maxcore 3000
|  6>
|  7> * xyz 1 2
|  8>   P   -1.49001204882609     -0.30892476315604      0.27694850121426
|  9>   H   -0.35974050626098      0.41243123471272     -0.09426710350383
| 10>   H   -1.43124737796522     -1.64910389006585     -0.09201766150340
| 11>   H   -2.68083006694771      0.30952741850917     -0.09066373620703
| 12> *
| 13>
| 14>                          ****END OF INPUT****
 Total Charge           Charge          ....    1
 Multiplicity           Mult            ....    2
 Number of Electrons    NEL             ....   17
Dispersion correction           -0.000095426
FINAL SINGLE POINT ENERGY      -342.789288045833
Dispersion correction            ... done
Dispersion correction           -0.000098281
FINAL SINGLE POINT ENERGY      -342.789395736655
Dispersion correction            ... done
Dispersion correction           -0.000099950
FINAL SINGLE POINT ENERGY      -342.789415451224
Dispersion correction            ... done
                    ***********************HURRAY********************

CARTESIAN COORDINATES (ANGSTROEM)
---------------------------------
  P     -1.489899   -0.309162    0.279612
  H     -0.352031    0.417884   -0.095175
  H     -1.431096   -1.658665   -0.092859
  H     -2.688804    0.313873   -0.091578

 Multiplicity           Mult            ....    2
 Number of Electrons    NEL             ....   17
 Basis Dimension        Dim             ....   55

ORBITAL ENERGIES
----------------
                 SPIN UP ORBITALS
  NO   OCC          E(Eh)            E(eV)
   0   1.0000     -77.502765     -2108.9575
   1   1.0000      -7.008481      -190.7105
   2   1.0000      -5.165531      -140.5612
   3   1.0000      -5.157360      -140.3389
   4   1.0000      -5.157355      -140.3388
   5   1.0000      -1.081278       -29.4231
   6   1.0000      -0.808670       -22.0050
   7   1.0000      -0.808540       -22.0015
   8   1.0000      -0.665918       -18.1205
   9   0.0000      -0.157046        -4.2734
  10   0.0000      -0.148120        -4.0305
  11   0.0000      -0.147951        -4.0260
  12   0.0000       0.001584         0.0431
  13   0.0000       0.033355         0.9076

                 SPIN DOWN ORBITALS
  NO   OCC          E(Eh)            E(eV)
   0   1.0000     -77.497553     -2108.8156
   1   1.0000      -7.004109      -190.5915
   2   1.0000      -5.154163      -140.2519
   3   1.0000      -5.154155      -140.2517
   4   1.0000      -5.151347      -140.1753
   5   1.0000      -1.044840       -28.4315
   6   1.0000      -0.799753       -21.7624
   7   1.0000      -0.799604       -21.7583
   8   0.0000      -0.355645        -9.6776
   9   0.0000      -0.140591        -3.8257
  10   0.0000      -0.134317        -3.6550
  11   0.0000      -0.134154        -3.6505
  12   0.0000       0.016837         0.4582

MULLIKEN ATOMIC CHARGES AND SPIN POPULATIONS
--------------------------------------------
   0 P :    0.309792    0.990451
   1 H :    0.230110    0.003238
   2 H :    0.230115    0.003187
   3 H :    0.229984    0.003124
Sum of atomic charges         :    1.0000000

LOEWDIN ATOMIC CHARGES AND SPIN POPULATIONS
-------------------------------------------
   0 P :    0.767027    0.979612
   1 H :    0.077739    0.006825
   2 H :    0.077660    0.006792
   3 H :    0.077574    0.006771

  Mayer bond orders larger than 0.100000
B(  0-P ,  1-H ) :   0.9051 B(  0-P ,  2-H ) :   0.9051 B(  0-P ,  3-H ) :   0.9052

Dispersion correction           -0.000099924
FINAL SINGLE POINT ENERGY      -342.789415592226

DIPOLE MOMENT
-------------
                                X             Y             Z
Electronic contribution:      0.00202      -0.00082       0.77925
Nuclear contribution   :     -0.00197       0.00051      -0.98560
                        -----------------------------------------
Total Dipole Moment    :      0.00005      -0.00031      -0.20635
                        -----------------------------------------
Magnitude (a.u.)       :      0.20635
Magnitude (Debye)      :      0.52450

Dispersion correction in the Hessian             ... done   (      4.0 sec)

VIBRATIONAL FREQUENCIES
-----------------------

Scaling factor for frequencies =  1.000000000  (already applied!)

   0:         0.00 cm**-1
   1:         0.00 cm**-1
   2:         0.00 cm**-1
   3:         0.00 cm**-1
   4:         0.00 cm**-1
   5:         0.00 cm**-1
   6:       742.35 cm**-1
   7:      1049.55 cm**-1
   8:      1050.86 cm**-1
   9:      2497.52 cm**-1
  10:      2564.20 cm**-1
  11:      2565.07 cm**-1

IR SPECTRUM
-----------

 Mode   freq       eps      Int      T**2         TX        TY        TZ
       cm**-1   L/(mol*cm) km/mol    a.u.
----------------------------------------------------------------------------
  6:    742.35   0.000572    2.89  0.000240  (-0.000057  0.000211  0.015499)
  7:   1049.55   0.001427    7.21  0.000424  (-0.010945  0.017453 -0.000051)
  8:   1050.86   0.001416    7.16  0.000421  ( 0.017271  0.011060 -0.000039)
  9:   2497.52   0.002929   14.80  0.000366  ( 0.000300 -0.000039 -0.019128)
 10:   2564.20   0.010670   53.92  0.001298  ( 0.021561  0.028872  0.000119)
 11:   2565.07   0.010661   53.88  0.001297  ( 0.028876 -0.021521  0.000088)

--------------------------
THERMOCHEMISTRY AT 298.15K
--------------------------

Temperature         ... 298.15 K
Pressure            ... 1.00 atm
Total Mass          ... 34.00 AMU

Throughout the following assumptions are being made:
  (1) The electronic state is orbitally nondegenerate
      but the spin degeneracy is treated
  (2) There are no thermally accessible electronically excited states
  (3) Hindered rotations indicated by low frequency modes are not
      treated as such but are treated as vibrations and this may
      cause some error
  (4) All equations used are the standard statistical mechanics
      equations for an ideal gas
  (5) All vibrations are strictly harmonic

freq.     742.35  E(vib)   ...       0.06
freq.    1049.55  E(vib)   ...       0.02
freq.    1050.86  E(vib)   ...       0.02
freq.    2497.52  E(vib)   ...       0.00
freq.    2564.20  E(vib)   ...       0.00
freq.    2565.07  E(vib)   ...       0.00

------------
INNER ENERGY
------------

The inner energy is: U= E(el) + E(ZPE) + E(vib) + E(rot) + E(trans)
    E(el)   - is the total energy from the electronic structure calculation
              = E(kin-el) + E(nuc-el) + E(el-el) + E(nuc-nuc)
    E(ZPE)  - the the zero temperature vibrational energy from the frequency calculation
    E(vib)  - the the finite temperature correction to E(ZPE) due to population
              of excited vibrational states
    E(rot)  - is the rotational thermal energy
    E(trans)- is the translational thermal energy

Summary of contributions to the inner energy U:
Electronic energy                ...   -342.78941559 Eh
Zero point energy                ...      0.02385137 Eh      14.97 kcal/mol
Thermal vibrational correction   ...      0.00015757 Eh       0.10 kcal/mol
Thermal rotational correction    ...      0.00141627 Eh       0.89 kcal/mol
Thermal translational correction ...      0.00141627 Eh       0.89 kcal/mol
-----------------------------------------------------------------------
Total thermal energy                   -342.76257411 Eh

Summary of corrections to the electronic energy:
(perhaps to be used in another calculation)
Total thermal correction                  0.00299011 Eh       1.88 kcal/mol
Non-thermal (ZPE) correction              0.02385137 Eh      14.97 kcal/mol
-----------------------------------------------------------------------
Total correction                          0.02684148 Eh      16.84 kcal/mol

--------
ENTHALPY
--------

The enthalpy is H = U + kB*T
                kB is Boltzmann's constant
Total free energy                 ...   -342.76257411 Eh
Thermal Enthalpy correction       ...      0.00094421 Eh       0.59 kcal/mol
-----------------------------------------------------------------------
Total Enthalpy                    ...   -342.76162991 Eh

Note: Only C1 symmetry has been detected, increase convergence thresholds
      if your molecule has a higher symmetry. Symmetry factor of 1.0 is
      used for the rotational entropy correction.

Note: Rotational entropy computed according to Herzberg
Infrared and Raman Spectra, Chapter V,1, Van Nostrand Reinhold, 1945
Point Group:  C1, Symmetry Number:   1
Rotational constants in cm-1:     5.368606     5.363367     3.055419

Vibrational entropy computed according to the QRRHO of S. Grimme
Chem.Eur.J. 2012 18 9955

-------
ENTROPY
-------

The entropy contributions are T*S = T*(S(el)+S(vib)+S(rot)+S(trans))
     S(el)   - electronic entropy
     S(vib)  - vibrational entropy
     S(rot)  - rotational entropy
     S(trans)- translational entropy
The entropies will be listed as multiplied by the temperature to get
units of energy

Electronic entropy                ...      0.00065446 Eh      0.41 kcal/mol
Vibrational entropy               ...      0.00019627 Eh      0.12 kcal/mol
Rotational entropy                ...      0.00739722 Eh      4.64 kcal/mol
Translational entropy             ...      0.01734327 Eh     10.88 kcal/mol
-----------------------------------------------------------------------
Final entropy term                ...      0.02559122 Eh     16.06 kcal/mol

In case the symmetry of your molecule has not been determined correctly
or in case you have a reason to use a different symmetry number we print
out the resulting rotational entropy values for sn=1,12 :
 --------------------------------------------------------
|  sn= 1 | S(rot)=       0.00739722 Eh      4.64 kcal/mol|
|  sn= 2 | S(rot)=       0.00674277 Eh      4.23 kcal/mol|
|  sn= 3 | S(rot)=       0.00635994 Eh      3.99 kcal/mol|
|  sn= 4 | S(rot)=       0.00608831 Eh      3.82 kcal/mol|
|  sn= 5 | S(rot)=       0.00587762 Eh      3.69 kcal/mol|
|  sn= 6 | S(rot)=       0.00570548 Eh      3.58 kcal/mol|
|  sn= 7 | S(rot)=       0.00555993 Eh      3.49 kcal/mol|
|  sn= 8 | S(rot)=       0.00543386 Eh      3.41 kcal/mol|
|  sn= 9 | S(rot)=       0.00532265 Eh      3.34 kcal/mol|
|  sn=10 | S(rot)=       0.00522317 Eh      3.28 kcal/mol|
|  sn=11 | S(rot)=       0.00513318 Eh      3.22 kcal/mol|
|  sn=12 | S(rot)=       0.00505102 Eh      3.17 kcal/mol|
 --------------------------------------------------------

-------------------
GIBBS FREE ENERGY
-------------------

The Gibbs free energy is G = H - T*S

Total enthalpy                    ...   -342.76162991 Eh
Total entropy correction          ...     -0.02559122 Eh    -16.06 kcal/mol
-----------------------------------------------------------------------
Final Gibbs free energy         ...   -342.78722112 Eh

For completeness - the Gibbs free energy minus the electronic energy
G-E(el)                           ...      0.00219447 Eh      1.38 kcal/mol

                             ****ORCA TERMINATED NORMALLY****
TOTAL RUN TIME: 0 days 0 hours 1 minutes 28 seconds 96 msec
