                         Program Version 5.0.2 -  RELEASE  -
|  1> # avogadro generated ORCA input file
|  2> # PH+ DUPLETO - GEOMETRIA
|  3> #
|  4> ! m062x def2-tzvp OPT FREQ
|  5> %maxcore 3000
|  6>
|  7> * xyz 1 2
|  8>    P       -4.07437        0.44335        0.00000
|  9>    H       -2.67483        0.28199        0.00000
| 10> *
| 11>
| 12>
| 13>                          ****END OF INPUT****
 Total Charge           Charge          ....    1
 Multiplicity           Mult            ....    2
 Number of Electrons    NEL             ....   15
FINAL SINGLE POINT ENERGY      -341.489161669140
FINAL SINGLE POINT ENERGY      -341.489219714987
FINAL SINGLE POINT ENERGY      -341.489230310502
                    ***********************HURRAY********************

CARTESIAN COORDINATES (ANGSTROEM)
---------------------------------
  P     -4.080870    0.444099    0.000000
  H     -2.668330    0.281241    0.000000

 Multiplicity           Mult            ....    2
 Number of Electrons    NEL             ....   15
 Basis Dimension        Dim             ....   43

ORBITAL ENERGIES
----------------
                 SPIN UP ORBITALS
  NO   OCC          E(Eh)            E(eV)
   0   1.0000     -78.454091     -2134.8443
   1   1.0000      -7.259375      -197.5376
   2   1.0000      -5.382142      -146.4555
   3   1.0000      -5.370958      -146.1512
   4   1.0000      -5.370559      -146.1403
   5   1.0000      -1.014370       -27.6024
   6   1.0000      -0.714259       -19.4360
   7   1.0000      -0.616870       -16.7859
   8   0.0000      -0.436362       -11.8740
   9   0.0000      -0.193841        -5.2747
  10   0.0000      -0.039779        -1.0825
  11   0.0000       0.001046         0.0285
  12   0.0000       0.001290         0.0351

                 SPIN DOWN ORBITALS
  NO   OCC          E(Eh)            E(eV)
   0   1.0000     -78.445353     -2134.6066
   1   1.0000      -7.256281      -197.4534
   2   1.0000      -5.368567      -146.0861
   3   1.0000      -5.367531      -146.0579
   4   1.0000      -5.357493      -145.7848
   5   1.0000      -0.966576       -26.3019
   6   1.0000      -0.699161       -19.0251
   7   0.0000      -0.418937       -11.3999
   8   0.0000      -0.385504       -10.4901
   9   0.0000      -0.181125        -4.9287
  10   0.0000      -0.057309        -1.5595
  11   0.0000      -0.003480        -0.0947

MULLIKEN ATOMIC CHARGES AND SPIN POPULATIONS
--------------------------------------------
   0 P :    0.783671    1.010061
   1 H :    0.216329   -0.010061
Sum of atomic charges         :    1.0000000

LOEWDIN ATOMIC CHARGES AND SPIN POPULATIONS
-------------------------------------------
   0 P :    0.956763    1.007352
   1 H :    0.043237   -0.007352

  Mayer bond orders larger than 0.100000
B(  0-P ,  1-H ) :   0.9220

FINAL SINGLE POINT ENERGY      -341.489230323439

DIPOLE MOMENT
-------------
                                X             Y             Z
Electronic contribution:     -0.97771       0.11266      -0.00000
Nuclear contribution   :      1.32322      -0.15256       0.00000
                        -----------------------------------------
Total Dipole Moment    :      0.34551      -0.03990      -0.00000
                        -----------------------------------------
Magnitude (a.u.)       :      0.34781
Magnitude (Debye)      :      0.88406

VIBRATIONAL FREQUENCIES
-----------------------

Scaling factor for frequencies =  1.000000000  (already applied!)

   0:         0.00 cm**-1
   1:         0.00 cm**-1
   2:         0.00 cm**-1
   3:         0.00 cm**-1
   4:         0.00 cm**-1
   5:      2426.01 cm**-1

IR SPECTRUM
-----------

 Mode   freq       eps      Int      T**2         TX        TY        TZ
       cm**-1   L/(mol*cm) km/mol    a.u.
----------------------------------------------------------------------------
  5:   2426.01   0.000229    1.16  0.000029  (-0.005349  0.000909 -0.000000)

--------------------------
THERMOCHEMISTRY AT 298.15K
--------------------------

Temperature         ... 298.15 K
Pressure            ... 1.00 atm
Total Mass          ... 31.98 AMU
The molecule is recognized as being linear

Throughout the following assumptions are being made:
  (1) The electronic state is orbitally nondegenerate
      but the spin degeneracy is treated
  (2) There are no thermally accessible electronically excited states
  (3) Hindered rotations indicated by low frequency modes are not
      treated as such but are treated as vibrations and this may
      cause some error
  (4) All equations used are the standard statistical mechanics
      equations for an ideal gas
  (5) All vibrations are strictly harmonic

freq.    2426.01  E(vib)   ...       0.00

------------
INNER ENERGY
------------

The inner energy is: U= E(el) + E(ZPE) + E(vib) + E(rot) + E(trans)
    E(el)   - is the total energy from the electronic structure calculation
              = E(kin-el) + E(nuc-el) + E(el-el) + E(nuc-nuc)
    E(ZPE)  - the the zero temperature vibrational energy from the frequency calculation
    E(vib)  - the the finite temperature correction to E(ZPE) due to population
              of excited vibrational states
    E(rot)  - is the rotational thermal energy
    E(trans)- is the translational thermal energy

Summary of contributions to the inner energy U:
Electronic energy                ...   -341.48923032 Eh
Zero point energy                ...      0.00552687 Eh       3.47 kcal/mol
Thermal vibrational correction   ...      0.00000009 Eh       0.00 kcal/mol
Thermal rotational correction    ...      0.00094418 Eh       0.59 kcal/mol
Thermal translational correction ...      0.00141627 Eh       0.89 kcal/mol
-----------------------------------------------------------------------
Total thermal energy                   -341.48134291 Eh

Summary of corrections to the electronic energy:
(perhaps to be used in another calculation)
Total thermal correction                  0.00236054 Eh       1.48 kcal/mol
Non-thermal (ZPE) correction              0.00552687 Eh       3.47 kcal/mol
-----------------------------------------------------------------------
Total correction                          0.00788741 Eh       4.95 kcal/mol

--------
ENTHALPY
--------

The enthalpy is H = U + kB*T
                kB is Boltzmann's constant
Total free energy                 ...   -341.48134291 Eh
Thermal Enthalpy correction       ...      0.00094421 Eh       0.59 kcal/mol
-----------------------------------------------------------------------
Total Enthalpy                    ...   -341.48039871 Eh

Note: Rotational entropy computed according to Herzberg
Infrared and Raman Spectra, Chapter V,1, Van Nostrand Reinhold, 1945
Point Group:  Cinfv, Symmetry Number:   1
Rotational constants in cm-1:     0.000000     8.541001     8.541001

Vibrational entropy computed according to the QRRHO of S. Grimme
Chem.Eur.J. 2012 18 9955

-------
ENTROPY
-------

The entropy contributions are T*S = T*(S(el)+S(vib)+S(rot)+S(trans))
     S(el)   - electronic entropy
     S(vib)  - vibrational entropy
     S(rot)  - rotational entropy
     S(trans)- translational entropy
The entropies will be listed as multiplied by the temperature to get
units of energy

Electronic entropy                ...      0.00065446 Eh      0.41 kcal/mol
Vibrational entropy               ...      0.00000010 Eh      0.00 kcal/mol
Rotational entropy                ...      0.00395511 Eh      2.48 kcal/mol
Translational entropy             ...      0.01725670 Eh     10.83 kcal/mol
-----------------------------------------------------------------------
Final entropy term                ...      0.02186636 Eh     13.72 kcal/mol

-------------------
GIBBS FREE ENERGY
-------------------

The Gibbs free energy is G = H - T*S

Total enthalpy                    ...   -341.48039871 Eh
Total entropy correction          ...     -0.02186636 Eh    -13.72 kcal/mol
-----------------------------------------------------------------------
Final Gibbs free energy         ...   -341.50226507 Eh

For completeness - the Gibbs free energy minus the electronic energy
G-E(el)                           ...     -0.01303474 Eh     -8.18 kcal/mol

                             ****ORCA TERMINATED NORMALLY****
TOTAL RUN TIME: 0 days 0 hours 1 minutes 12 seconds 716 msec
