                         Program Version 5.0.2 -  RELEASE  -
|  1> # avogadro generated ORCA input file
|  2> # H2
|  3> #
|  4> ! MP2 OPT cc-pvtz LARGEPRINT  NUMFREQ
|  5> %maxcore 3000
|  6>
|  7> %freq
|  8>     Increment 0.001
|  9> end
| 10>
| 11> * xyz 0 1
| 12>    H       -5.98732        1.70385        0.00000
| 13>    H       -5.27951        1.72039        0.00000
| 14> *
| 15>
| 16>
| 17>                          ****END OF INPUT****
 Total Charge           Charge          ....    0
 Multiplicity           Mult            ....    1
 Number of Electrons    NEL             ....    2
MP2 TOTAL ENERGY:       -1.164024527 Eh
FINAL SINGLE POINT ENERGY        -1.164024527109
MP2 TOTAL ENERGY:       -1.164496113 Eh
FINAL SINGLE POINT ENERGY        -1.164496112952
MP2 TOTAL ENERGY:       -1.164648442 Eh
FINAL SINGLE POINT ENERGY        -1.164648442332
MP2 TOTAL ENERGY:       -1.164649776 Eh
FINAL SINGLE POINT ENERGY        -1.164649776226
                    ***********************HURRAY********************

CARTESIAN COORDINATES (ANGSTROEM)
---------------------------------
  H     -6.001823    1.703511    0.000000
  H     -5.265007    1.720729    0.000000

 Multiplicity           Mult            ....    1
 Number of Electrons    NEL             ....    2
 Basis Dimension        Dim             ....   28

ORBITAL ENERGIES
----------------

  NO   OCC          E(Eh)            E(eV)
   0   2.0000      -0.595608       -16.2073
   1   0.0000       0.167675         4.5627
   2   0.0000       0.304724         8.2920
   3   0.0000       0.645045        17.5526
   4   0.0000       0.693042        18.8586
   5   0.0000       0.693042        18.8586

------------------
MOLECULAR ORBITALS
------------------
                      0         1         2         3         4         5
                  -0.59561   0.16768   0.30472   0.64505   0.69304   0.69304
                   2.00000   0.00000   0.00000   0.00000   0.00000   0.00000
                  --------  --------  --------  --------  --------  --------
  0H   1s        -0.186953  0.065913 -0.056204 -0.125895  0.000000  0.000000
  0H   2s        -0.283558 -0.322559 -0.733535 -2.304004  0.000000  0.000000
  0H   3s        -0.134820  2.339045  0.860352  2.261736 -0.000000 -0.000000
  0H   1pz       -0.000000  0.000000 -0.000000  0.000000 -0.000009  0.058632
  0H   1px       -0.012087 -0.035318 -0.016775 -0.086070  0.001370  0.000000
  0H   1py       -0.000282 -0.000825 -0.000392 -0.002011 -0.058616 -0.000009
  0H   2pz        0.000000  0.000000  0.000000  0.000000  0.000085 -0.577903
  0H   2px       -0.017310 -0.106242  0.051340 -0.215395 -0.013501 -0.000002
  0H   2py       -0.000405 -0.002483  0.001200 -0.005033  0.577745  0.000085
  0H   1dz2       0.000407  0.009729 -0.003974  0.035732 -0.000000  0.000000
  0H   1dxz       0.000000  0.000000  0.000000  0.000000 -0.000001  0.008896
  0H   1dyz      -0.000000  0.000000 -0.000000  0.000000 -0.000000  0.000208
  0H   1dx2y2    -0.000704 -0.016833  0.006875 -0.061821  0.000416  0.000000
  0H   1dxy      -0.000033 -0.000787  0.000321 -0.002891 -0.008889 -0.000001
  1H   1s        -0.186953 -0.065913 -0.056204  0.125895 -0.000000  0.000000
  1H   2s        -0.283558  0.322559 -0.733535  2.304004 -0.000000 -0.000000
  1H   3s        -0.134820 -2.339045  0.860352 -2.261736  0.000000  0.000000
  1H   1pz        0.000000 -0.000000 -0.000000 -0.000000 -0.000009  0.058632
  1H   1px        0.012087 -0.035318  0.016775 -0.086070  0.001370  0.000000
  1H   1py        0.000282 -0.000825  0.000392 -0.002011 -0.058616 -0.000009
  1H   2pz       -0.000000 -0.000000 -0.000000 -0.000000  0.000085 -0.577903
  1H   2px        0.017310 -0.106242 -0.051340 -0.215395 -0.013501 -0.000002
  1H   2py        0.000405 -0.002483 -0.001200 -0.005033  0.577745  0.000085
  1H   1dz2       0.000407 -0.009729 -0.003974 -0.035732  0.000000  0.000000
  1H   1dxz       0.000000  0.000000 -0.000000  0.000000  0.000001 -0.008896
  1H   1dyz      -0.000000 -0.000000 -0.000000  0.000000  0.000000 -0.000208
  1H   1dx2y2    -0.000704  0.016833  0.006875  0.061821 -0.000416 -0.000000
  1H   1dxy      -0.000033  0.000787  0.000321  0.002891  0.008889  0.000001
                      6         7         8         9        10        11
                   1.09743   1.12061   1.12061   1.53040   2.33718   2.40533
                   0.00000   0.00000   0.00000   0.00000   0.00000   0.00000
                  --------  --------  --------  --------  --------  --------
  0H   1s         0.007366  0.000000 -0.000000 -0.035504 -0.621117  0.957173
  0H   2s         0.668153 -0.000000  0.000000-13.265527  3.294758 -0.990558
  0H   3s        -0.356740  0.000000 -0.000000  0.347376 -1.320566  0.385531
  0H   1pz        0.000000  0.000285  0.066036 -0.000000  0.000000  0.000000
  0H   1px        0.102593  0.001543 -0.000007 -0.128080  0.563072  0.105786
  0H   1py        0.002397 -0.066018  0.000285 -0.002993  0.013158  0.002472
  0H   2pz        0.000000 -0.006142 -1.424374  0.000000  0.000000 -0.000000
  0H   2px       -1.066116 -0.033275  0.000143 -6.252470  0.621420 -0.245142
  0H   2py       -0.024913  1.423985 -0.006141 -0.146107  0.014521 -0.005728
  0H   1dz2       0.034133 -0.000000  0.000000  0.143372 -0.209944 -0.054774
  0H   1dxz       0.000000 -0.000474 -0.109871  0.000000  0.000000  0.000000
  0H   1dyz       0.000000 -0.000011 -0.002567  0.000000 -0.000000 -0.000000
  0H   1dx2y2    -0.059055 -0.005133  0.000022 -0.248056  0.363238  0.094767
  0H   1dxy      -0.002761  0.109781 -0.000473 -0.011599  0.016985  0.004431
  1H   1s         0.007366  0.000000 -0.000000  0.035504  0.621117  0.957173
  1H   2s         0.668153 -0.000000  0.000000 13.265527 -3.294758 -0.990558
  1H   3s        -0.356740  0.000000 -0.000000 -0.347376  1.320566  0.385531
  1H   1pz        0.000000 -0.000285 -0.066036 -0.000000 -0.000000  0.000000
  1H   1px       -0.102593 -0.001543  0.000007 -0.128080  0.563072 -0.105786
  1H   1py       -0.002397  0.066018 -0.000285 -0.002993  0.013158 -0.002472
  1H   2pz       -0.000000  0.006142  1.424374  0.000000 -0.000000  0.000000
  1H   2px        1.066116  0.033275 -0.000143 -6.252470  0.621420  0.245142
  1H   2py        0.024913 -1.423985  0.006141 -0.146107  0.014521  0.005728
  1H   1dz2       0.034133 -0.000000  0.000000 -0.143372  0.209944 -0.054774
  1H   1dxz      -0.000000 -0.000474 -0.109871 -0.000000  0.000000 -0.000000
  1H   1dyz      -0.000000 -0.000011 -0.002567 -0.000000  0.000000 -0.000000
  1H   1dx2y2    -0.059055 -0.005133  0.000022  0.248056 -0.363238  0.094767
  1H   1dxy      -0.002761  0.109781 -0.000473  0.011599 -0.016985  0.004431
                     12        13        14        15        16        17
                   3.17583   3.17583   3.41451   3.41451   3.67620   3.89024
                   0.00000   0.00000   0.00000   0.00000   0.00000   0.00000
                  --------  --------  --------  --------  --------  --------
  0H   1s        -0.000000 -0.000000 -0.000000  0.000000 -0.093074 -0.000000
  0H   2s        -0.000000 -0.000000  0.000000 -0.000000 -0.263346  0.000000
  0H   3s         0.000000 -0.000000 -0.000000 -0.000000  0.154139 -0.000000
  0H   1pz        0.000000 -0.000000  0.000330 -0.591292  0.000000  0.004019
  0H   1px       -0.000000 -0.000000 -0.013813 -0.000008 -0.819556 -0.011446
  0H   1py       -0.000000 -0.000000  0.591130  0.000330 -0.019151  0.489818
  0H   2pz       -0.000000  0.000000 -0.000200  0.357719 -0.000000 -0.009376
  0H   2px       -0.000000 -0.000000  0.008357  0.000005  0.879019  0.026705
  0H   2py        0.000000  0.000000 -0.357622 -0.000199  0.020541 -1.142798
  0H   1dz2       0.048838  0.523075 -0.000000  0.000000 -0.220049  0.000000
  0H   1dxz      -0.014110  0.001317  0.000177 -0.317156 -0.000000 -0.006905
  0H   1dyz       0.603830 -0.056378  0.000004 -0.007411 -0.000000 -0.000161
  0H   1dx2y2     0.028166  0.301668 -0.014818 -0.000008  0.380720  0.039332
  0H   1dxy       0.001317  0.014106  0.316896  0.000177  0.017803 -0.841117
  1H   1s        -0.000000 -0.000000  0.000000  0.000000 -0.093074  0.000000
  1H   2s         0.000000  0.000000 -0.000000 -0.000000 -0.263346  0.000000
  1H   3s        -0.000000 -0.000000  0.000000 -0.000000  0.154139  0.000000
  1H   1pz       -0.000000  0.000000  0.000330 -0.591292 -0.000000 -0.004019
  1H   1px        0.000000  0.000000 -0.013813 -0.000008  0.819556  0.011446
  1H   1py        0.000000  0.000000  0.591130  0.000330  0.019151 -0.489818
  1H   2pz        0.000000 -0.000000 -0.000200  0.357719  0.000000  0.009376
  1H   2px       -0.000000 -0.000000  0.008357  0.000005 -0.879019 -0.026705
  1H   2py       -0.000000 -0.000000 -0.357622 -0.000199 -0.020541  1.142798
  1H   1dz2       0.048838  0.523075  0.000000 -0.000000 -0.220049  0.000000
  1H   1dxz      -0.014110  0.001317 -0.000177  0.317156 -0.000000 -0.006905
  1H   1dyz       0.603830 -0.056378 -0.000004  0.007411  0.000000 -0.000161
  1H   1dx2y2     0.028166  0.301668  0.014818  0.000008  0.380720  0.039332
  1H   1dxy       0.001317  0.014106 -0.316896 -0.000177  0.017803 -0.841117
                     18        19        20        21        22        23
                   3.89024   4.08852   4.08852   4.11782   4.11782   4.66978
                   0.00000   0.00000   0.00000   0.00000   0.00000   0.00000
                  --------  --------  --------  --------  --------  --------
  0H   1s         0.000000  0.000000 -0.000000  0.000000  0.000000 -0.704428
  0H   2s         0.000000  0.000000 -0.000000 -0.000000 -0.000000 -7.159148
  0H   3s        -0.000000 -0.000000 -0.000000  0.000000  0.000000 -0.108373
  0H   1pz        0.489952 -0.000000 -0.000000  0.653185 -0.000149 -0.000000
  0H   1px        0.000094  0.000000 -0.000000  0.000003  0.015259  0.198339
  0H   1py       -0.004018 -0.000000  0.000000 -0.000149 -0.653007  0.004635
  0H   2pz       -1.143110  0.000000 -0.000000 -0.246329  0.000056 -0.000000
  0H   2px       -0.000219 -0.000000 -0.000000 -0.000001 -0.005755 -3.738307
  0H   2py        0.009373  0.000000 -0.000000  0.000056  0.246262 -0.087356
  0H   1dz2       0.000000  0.018144 -0.764494 -0.000000 -0.000000  0.477533
  0H   1dxz      -0.841806  0.020623  0.000489 -0.568284  0.000130 -0.000000
  0H   1dyz      -0.019671 -0.882521 -0.020946 -0.013280  0.000003  0.000000
  0H   1dx2y2    -0.000323  0.010464 -0.440899 -0.000006 -0.026552 -0.826209
  0H   1dxy       0.006899  0.000489 -0.020617  0.000130  0.567819 -0.038635
  1H   1s        -0.000000  0.000000  0.000000  0.000000 -0.000000  0.704428
  1H   2s         0.000000 -0.000000  0.000000  0.000000  0.000000  7.159148
  1H   3s        -0.000000 -0.000000 -0.000000 -0.000000 -0.000000  0.108373
  1H   1pz       -0.489952 -0.000000 -0.000000  0.653185 -0.000149  0.000000
  1H   1px       -0.000094 -0.000000 -0.000000  0.000003  0.015259  0.198339
  1H   1py        0.004018 -0.000000  0.000000 -0.000149 -0.653007  0.004635
  1H   2pz        1.143110  0.000000  0.000000 -0.246329  0.000056  0.000000
  1H   2px        0.000219  0.000000 -0.000000 -0.000001 -0.005755 -3.738307
  1H   2py       -0.009373  0.000000 -0.000000  0.000056  0.246262 -0.087356
  1H   1dz2      -0.000000 -0.018144  0.764494  0.000000  0.000000 -0.477533
  1H   1dxz      -0.841806 -0.020623 -0.000489  0.568284 -0.000130 -0.000000
  1H   1dyz      -0.019671  0.882521  0.020946  0.013280 -0.000003 -0.000000
  1H   1dx2y2    -0.000323 -0.010464  0.440899  0.000006  0.026552  0.826209
  1H   1dxy       0.006899 -0.000489  0.020617 -0.000130 -0.567819  0.038635
                     24        25        26        27
                   5.74474   5.74474   5.82213   6.98713
                   0.00000   0.00000   0.00000   0.00000
                  --------  --------  --------  --------
  0H   1s        -0.000000 -0.000000  1.220061  1.584570
  0H   2s        -0.000000  0.000000 -0.580908  4.332253
  0H   3s        -0.000000  0.000000  0.094852 -0.602722
  0H   1pz        0.000916 -1.086349 -0.000000 -0.000000
  0H   1px        0.025379  0.000021  0.013573  1.975268
  0H   1py       -1.086053 -0.000916  0.000317  0.046158
  0H   2pz        0.000399 -0.473329 -0.000000  0.000000
  0H   2px        0.011058  0.000009 -0.711952  1.661851
  0H   2py       -0.473200 -0.000399 -0.016637  0.038834
  0H   1dz2      -0.000000 -0.000000  0.559951 -0.506967
  0H   1dxz       0.001146 -1.358572 -0.000000  0.000000
  0H   1dyz       0.000027 -0.031747  0.000000 -0.000000
  0H   1dx2y2     0.063476  0.000054 -0.968805  0.877134
  0H   1dxy      -1.357460 -0.001145 -0.045303  0.041016
  1H   1s        -0.000000 -0.000000  1.220061 -1.584570
  1H   2s         0.000000 -0.000000 -0.580908 -4.332253
  1H   3s        -0.000000 -0.000000  0.094852  0.602722
  1H   1pz       -0.000916  1.086349  0.000000 -0.000000
  1H   1px       -0.025379 -0.000021 -0.013573  1.975268
  1H   1py        1.086053  0.000916 -0.000317  0.046158
  1H   2pz       -0.000399  0.473329  0.000000 -0.000000
  1H   2px       -0.011058 -0.000009  0.711952  1.661851
  1H   2py        0.473200  0.000399  0.016637  0.038834
  1H   1dz2      -0.000000 -0.000000  0.559951  0.506967
  1H   1dxz       0.001146 -1.358572 -0.000000  0.000000
  1H   1dyz       0.000027 -0.031747 -0.000000  0.000000
  1H   1dx2y2     0.063476  0.000054 -0.968805 -0.877134
  1H   1dxy      -1.357460 -0.001145 -0.045303 -0.041016

MULLIKEN ATOMIC CHARGES
-----------------------
   0 H :    0.000000
   1 H :   -0.000000
Sum of atomic charges:    0.0000000

LOEWDIN ATOMIC CHARGES
----------------------
   0 H :    0.000000
   1 H :    0.000000

  Mayer bond orders larger than 0.100000
B(  0-H ,  1-H ) :   0.9745

MP2 TOTAL ENERGY:       -1.164649784 Eh
FINAL SINGLE POINT ENERGY        -1.164649783897

DIPOLE MOMENT
-------------
                                X             Y             Z
Electronic contribution:     -0.00000       0.00000       0.00000
Nuclear contribution   :      0.00000      -0.00000       0.00000
                        -----------------------------------------
Total Dipole Moment    :      0.00000      -0.00000       0.00000
                        -----------------------------------------
Magnitude (a.u.)       :      0.00000
Magnitude (Debye)      :      0.00000

VIBRATIONAL FREQUENCIES
-----------------------

Scaling factor for frequencies =  1.000000000 (already applied!)

   0:         0.00 cm**-1
   1:         0.00 cm**-1
   2:         0.00 cm**-1
   3:         0.00 cm**-1
   4:         0.00 cm**-1
   5:      4528.56 cm**-1

IR SPECTRUM
-----------

 Mode   freq       eps      Int      T**2         TX        TY        TZ
       cm**-1   L/(mol*cm) km/mol    a.u.
----------------------------------------------------------------------------
  5:   4528.56   0.000000    0.00  0.000000  ( 0.000000 -0.000000 -0.000000)

--------------------------
THERMOCHEMISTRY AT 298.15K
--------------------------

Temperature         ... 298.15 K
Pressure            ... 1.00 atm
Total Mass          ... 2.02 AMU
The molecule is recognized as being linear

Throughout the following assumptions are being made:
  (1) The electronic state is orbitally nondegenerate
  (2) There are no thermally accessible electronically excited states
  (3) Hindered rotations indicated by low frequency modes are not
      treated as such but are treated as vibrations and this may
      cause some error
  (4) All equations used are the standard statistical mechanics
      equations for an ideal gas
  (5) All vibrations are strictly harmonic

freq.    4528.56  E(vib)   ...       0.00

------------
INNER ENERGY
------------

The inner energy is: U= E(el) + E(ZPE) + E(vib) + E(rot) + E(trans)
    E(el)   - is the total energy from the electronic structure calculation
              = E(kin-el) + E(nuc-el) + E(el-el) + E(nuc-nuc)
    E(ZPE)  - the the zero temperature vibrational energy from the frequency calculation
    E(vib)  - the the finite temperature correction to E(ZPE) due to population
              of excited vibrational states
    E(rot)  - is the rotational thermal energy
    E(trans)- is the translational thermal energy

Summary of contributions to the inner energy U:
Electronic energy                ...     -1.16464978 Eh
Zero point energy                ...      0.01031682 Eh       6.47 kcal/mol
Thermal vibrational correction   ...      0.00000000 Eh       0.00 kcal/mol
Thermal rotational correction    ...      0.00094418 Eh       0.59 kcal/mol
Thermal translational correction ...      0.00141627 Eh       0.89 kcal/mol
-----------------------------------------------------------------------
Total thermal energy                     -1.15197251 Eh

Summary of corrections to the electronic energy:
(perhaps to be used in another calculation)
Total thermal correction                  0.00236045 Eh       1.48 kcal/mol
Non-thermal (ZPE) correction              0.01031682 Eh       6.47 kcal/mol
-----------------------------------------------------------------------
Total correction                          0.01267727 Eh       7.96 kcal/mol

--------
ENTHALPY
--------

The enthalpy is H = U + kB*T
                kB is Boltzmann's constant
Total free energy                 ...     -1.15197251 Eh
Thermal Enthalpy correction       ...      0.00094421 Eh       0.59 kcal/mol
-----------------------------------------------------------------------
Total Enthalpy                    ...     -1.15102830 Eh

The point group will now be determined using a tolerance of 1.0000e-04.

WARNING (ORCA_SYM): The standard basis set is uninitialized at this point.
The point group is determined without considering basis set information.

Splitting atom subsets according to nuclear charge, mass and basis set.
Splitting atom subsets according to distance from the molecule's center.
Identifying relative distance patterns of the atoms.
Splitting atom subsets according to atoms' relative distance patterns.
Bring atoms of each subset into input order.
The molecule is linear.
The molecule has a center of inversion.
No further test is needed for point group Dinfh.
This point group has been found:    Dinfh
Largest non-degenerate subgroup:    D2h

Symmetry-perfected Cartesians (point groups Dinfh and D2h):

Atom          Symmetry-perfected Cartesians (x, y, z; au)
  0       0.000000000000    0.000000000000   -0.696380637266
  1       0.000000000000    0.000000000000    0.696380637266

Note: Rotational entropy computed according to Herzberg
Infrared and Raman Spectra, Chapter V,1, Van Nostrand Reinhold, 1945
Point Group:  Dinfh, Symmetry Number:   2
Rotational constants in cm-1:     0.000000    61.575896    61.575896

Vibrational entropy computed according to the QRRHO of S. Grimme
Chem.Eur.J. 2012 18 9955

-------
ENTROPY
-------

The entropy contributions are T*S = T*(S(el)+S(vib)+S(rot)+S(trans))
     S(el)   - electronic entropy
     S(vib)  - vibrational entropy
     S(rot)  - rotational entropy
     S(trans)- translational entropy
The entropies will be listed as multiplied by the temperature to get
units of energy

Electronic entropy                ...      0.00000000 Eh      0.00 kcal/mol
Vibrational entropy               ...     -0.00000000 Eh     -0.00 kcal/mol
Rotational entropy                ...      0.00143553 Eh      0.90 kcal/mol
Translational entropy             ...      0.01334204 Eh      8.37 kcal/mol
-----------------------------------------------------------------------
Final entropy term                ...      0.01477757 Eh      9.27 kcal/mol

-------------------
GIBBS FREE ENERGY
-------------------

The Gibbs free energy is G = H - T*S

Total enthalpy                    ...     -1.15102830 Eh
Total entropy correction          ...     -0.01477757 Eh     -9.27 kcal/mol
-----------------------------------------------------------------------
Final Gibbs free energy         ...     -1.16580586 Eh

For completeness - the Gibbs free energy minus the electronic energy
G-E(el)                           ...     -0.00115609 Eh     -0.73 kcal/mol

                             ****ORCA TERMINATED NORMALLY****
TOTAL RUN TIME: 0 days 0 hours 3 minutes 1 seconds 332 msec
