                         Program Version 5.0.2 -  RELEASE  -
|  1> # avogadro generated ORCA input file
|  2> # PH3+ DUPLETO - FREQ
|  3> #
|  4> ! WB97X def2-tzvp OPT FREQ
|  5> %maxcore 3000
|  6>
|  7> * xyz 1 2
|  8>   P   -1.49001204882609     -0.30892476315604      0.27694850121426
|  9>   H   -0.35974050626098      0.41243123471272     -0.09426710350383
| 10>   H   -1.43124737796522     -1.64910389006585     -0.09201766150340
| 11>   H   -2.68083006694771      0.30952741850917     -0.09066373620703
| 12> *
| 13>
| 14>                          ****END OF INPUT****
 Total Charge           Charge          ....    1
 Multiplicity           Mult            ....    2
 Number of Electrons    NEL             ....   17
FINAL SINGLE POINT ENERGY      -342.786574949420
FINAL SINGLE POINT ENERGY      -342.786667639232
FINAL SINGLE POINT ENERGY      -342.786684211589
                    ***********************HURRAY********************

CARTESIAN COORDINATES (ANGSTROEM)
---------------------------------
  P     -1.489915   -0.309140    0.279598
  H     -0.352683    0.417404   -0.095170
  H     -1.431093   -1.657844   -0.092858
  H     -2.688139    0.313510   -0.091570

 Multiplicity           Mult            ....    2
 Number of Electrons    NEL             ....   17
 Basis Dimension        Dim             ....   55

ORBITAL ENERGIES
----------------
                 SPIN UP ORBITALS
  NO   OCC          E(Eh)            E(eV)
   0   1.0000     -77.401355     -2106.1979
   1   1.0000      -6.992089      -190.2644
   2   1.0000      -5.156324      -140.3107
   3   1.0000      -5.148667      -140.1024
   4   1.0000      -5.148662      -140.1022
   5   1.0000      -1.095566       -29.8119
   6   1.0000      -0.817805       -22.2536
   7   1.0000      -0.817688       -22.2504
   8   1.0000      -0.674640       -18.3579
   9   0.0000      -0.149889        -4.0787
  10   0.0000      -0.140729        -3.8294
  11   0.0000      -0.140580        -3.8254
  12   0.0000       0.009274         0.2523
  13   0.0000       0.040435         1.1003

                 SPIN DOWN ORBITALS
  NO   OCC          E(Eh)            E(eV)
   0   1.0000     -77.396338     -2106.0614
   1   1.0000      -6.988336      -190.1623
   2   1.0000      -5.145735      -140.0226
   3   1.0000      -5.145728      -140.0224
   4   1.0000      -5.143575      -139.9638
   5   1.0000      -1.057230       -28.7687
   6   1.0000      -0.808840       -22.0097
   7   1.0000      -0.808706       -22.0060
   8   0.0000      -0.351366        -9.5611
   9   0.0000      -0.133298        -3.6272
  10   0.0000      -0.128070        -3.4850
  11   0.0000      -0.127926        -3.4811
  12   0.0000       0.015518         0.4223

MULLIKEN ATOMIC CHARGES AND SPIN POPULATIONS
--------------------------------------------
   0 P :    0.318036    0.988275
   1 H :    0.227360    0.003955
   2 H :    0.227363    0.003915
   3 H :    0.227241    0.003856
Sum of atomic charges         :    1.0000000

LOEWDIN ATOMIC CHARGES AND SPIN POPULATIONS
-------------------------------------------
   0 P :    0.771314    0.980434
   1 H :    0.076301    0.006547
   2 H :    0.076228    0.006519
   3 H :    0.076157    0.006500

  Mayer bond orders larger than 0.100000
B(  0-P ,  1-H ) :   0.9071 B(  0-P ,  2-H ) :   0.9071 B(  0-P ,  3-H ) :   0.9072

FINAL SINGLE POINT ENERGY      -342.786684334801

DIPOLE MOMENT
-------------
                                X             Y             Z
Electronic contribution:      0.00192      -0.00071       0.77933
Nuclear contribution   :     -0.00191       0.00043      -0.98555
                        -----------------------------------------
Total Dipole Moment    :      0.00001      -0.00028      -0.20622
                        -----------------------------------------
Magnitude (a.u.)       :      0.20622
Magnitude (Debye)      :      0.52417

VIBRATIONAL FREQUENCIES
-----------------------

Scaling factor for frequencies =  1.000000000  (already applied!)

   0:         0.00 cm**-1
   1:         0.00 cm**-1
   2:         0.00 cm**-1
   3:         0.00 cm**-1
   4:         0.00 cm**-1
   5:         0.00 cm**-1
   6:       744.84 cm**-1
   7:      1052.65 cm**-1
   8:      1053.83 cm**-1
   9:      2511.34 cm**-1
  10:      2576.56 cm**-1
  11:      2577.35 cm**-1

IR SPECTRUM
-----------

 Mode   freq       eps      Int      T**2         TX        TY        TZ
       cm**-1   L/(mol*cm) km/mol    a.u.
----------------------------------------------------------------------------
  6:    744.84   0.000540    2.73  0.000226  (-0.000059  0.000204  0.015037)
  7:   1052.65   0.001487    7.51  0.000441  (-0.010269  0.018310 -0.000053)
  8:   1053.83   0.001475    7.45  0.000437  ( 0.018147  0.010367 -0.000034)
  9:   2511.34   0.002926   14.79  0.000364  ( 0.000259 -0.000041 -0.019068)
 10:   2576.56   0.010490   53.01  0.001270  ( 0.020360  0.029256  0.000100)
 11:   2577.35   0.010487   53.00  0.001270  ( 0.029278 -0.020312  0.000075)

--------------------------
THERMOCHEMISTRY AT 298.15K
--------------------------

Temperature         ... 298.15 K
Pressure            ... 1.00 atm
Total Mass          ... 34.00 AMU

Throughout the following assumptions are being made:
  (1) The electronic state is orbitally nondegenerate
      but the spin degeneracy is treated
  (2) There are no thermally accessible electronically excited states
  (3) Hindered rotations indicated by low frequency modes are not
      treated as such but are treated as vibrations and this may
      cause some error
  (4) All equations used are the standard statistical mechanics
      equations for an ideal gas
  (5) All vibrations are strictly harmonic

freq.     744.84  E(vib)   ...       0.06
freq.    1052.65  E(vib)   ...       0.02
freq.    1053.83  E(vib)   ...       0.02
freq.    2511.34  E(vib)   ...       0.00
freq.    2576.56  E(vib)   ...       0.00
freq.    2577.35  E(vib)   ...       0.00

------------
INNER ENERGY
------------

The inner energy is: U= E(el) + E(ZPE) + E(vib) + E(rot) + E(trans)
    E(el)   - is the total energy from the electronic structure calculation
              = E(kin-el) + E(nuc-el) + E(el-el) + E(nuc-nuc)
    E(ZPE)  - the the zero temperature vibrational energy from the frequency calculation
    E(vib)  - the the finite temperature correction to E(ZPE) due to population
              of excited vibrational states
    E(rot)  - is the rotational thermal energy
    E(trans)- is the translational thermal energy

Summary of contributions to the inner energy U:
Electronic energy                ...   -342.78668433 Eh
Zero point energy                ...      0.02395852 Eh      15.03 kcal/mol
Thermal vibrational correction   ...      0.00015597 Eh       0.10 kcal/mol
Thermal rotational correction    ...      0.00141627 Eh       0.89 kcal/mol
Thermal translational correction ...      0.00141627 Eh       0.89 kcal/mol
-----------------------------------------------------------------------
Total thermal energy                   -342.75973730 Eh

Summary of corrections to the electronic energy:
(perhaps to be used in another calculation)
Total thermal correction                  0.00298852 Eh       1.88 kcal/mol
Non-thermal (ZPE) correction              0.02395852 Eh      15.03 kcal/mol
-----------------------------------------------------------------------
Total correction                          0.02694703 Eh      16.91 kcal/mol

--------
ENTHALPY
--------

The enthalpy is H = U + kB*T
                kB is Boltzmann's constant
Total free energy                 ...   -342.75973730 Eh
Thermal Enthalpy correction       ...      0.00094421 Eh       0.59 kcal/mol
-----------------------------------------------------------------------
Total Enthalpy                    ...   -342.75879309 Eh

Note: Only C1 symmetry has been detected, increase convergence thresholds
      if your molecule has a higher symmetry. Symmetry factor of 1.0 is
      used for the rotational entropy correction.

Note: Rotational entropy computed according to Herzberg
Infrared and Raman Spectra, Chapter V,1, Van Nostrand Reinhold, 1945
Point Group:  C1, Symmetry Number:   1
Rotational constants in cm-1:     5.373901     5.369310     3.059019

Vibrational entropy computed according to the QRRHO of S. Grimme
Chem.Eur.J. 2012 18 9955

-------
ENTROPY
-------

The entropy contributions are T*S = T*(S(el)+S(vib)+S(rot)+S(trans))
     S(el)   - electronic entropy
     S(vib)  - vibrational entropy
     S(rot)  - rotational entropy
     S(trans)- translational entropy
The entropies will be listed as multiplied by the temperature to get
units of energy

Electronic entropy                ...      0.00065446 Eh      0.41 kcal/mol
Vibrational entropy               ...      0.00019417 Eh      0.12 kcal/mol
Rotational entropy                ...      0.00739568 Eh      4.64 kcal/mol
Translational entropy             ...      0.01734327 Eh     10.88 kcal/mol
-----------------------------------------------------------------------
Final entropy term                ...      0.02558758 Eh     16.06 kcal/mol

In case the symmetry of your molecule has not been determined correctly
or in case you have a reason to use a different symmetry number we print
out the resulting rotational entropy values for sn=1,12 :
 --------------------------------------------------------
|  sn= 1 | S(rot)=       0.00739568 Eh      4.64 kcal/mol|
|  sn= 2 | S(rot)=       0.00674122 Eh      4.23 kcal/mol|
|  sn= 3 | S(rot)=       0.00635839 Eh      3.99 kcal/mol|
|  sn= 4 | S(rot)=       0.00608677 Eh      3.82 kcal/mol|
|  sn= 5 | S(rot)=       0.00587608 Eh      3.69 kcal/mol|
|  sn= 6 | S(rot)=       0.00570394 Eh      3.58 kcal/mol|
|  sn= 7 | S(rot)=       0.00555839 Eh      3.49 kcal/mol|
|  sn= 8 | S(rot)=       0.00543231 Eh      3.41 kcal/mol|
|  sn= 9 | S(rot)=       0.00532110 Eh      3.34 kcal/mol|
|  sn=10 | S(rot)=       0.00522162 Eh      3.28 kcal/mol|
|  sn=11 | S(rot)=       0.00513163 Eh      3.22 kcal/mol|
|  sn=12 | S(rot)=       0.00504948 Eh      3.17 kcal/mol|
 --------------------------------------------------------

-------------------
GIBBS FREE ENERGY
-------------------

The Gibbs free energy is G = H - T*S

Total enthalpy                    ...   -342.75879309 Eh
Total entropy correction          ...     -0.02558758 Eh    -16.06 kcal/mol
-----------------------------------------------------------------------
Final Gibbs free energy         ...   -342.78438067 Eh

For completeness - the Gibbs free energy minus the electronic energy
G-E(el)                           ...      0.00230366 Eh      1.45 kcal/mol

                             ****ORCA TERMINATED NORMALLY****
TOTAL RUN TIME: 0 days 0 hours 1 minutes 37 seconds 163 msec
